# Force and moment coefficients
# dragDir               : (1.0000000000000000e+00 0.0000000000000000e+00 0.0000000000000000e+00)
# sideDir               : (0.0000000000000000e+00 0.0000000000000000e+00 -1.0000000000000000e+00)
# liftDir               : (0.0000000000000000e+00 1.0000000000000000e+00 0.0000000000000000e+00)
# rollAxis              : (1.0000000000000000e+00 0.0000000000000000e+00 0.0000000000000000e+00)
# pitchAxis             : (0.0000000000000000e+00 0.0000000000000000e+00 -1.0000000000000000e+00)
# yawAxis               : (0.0000000000000000e+00 1.0000000000000000e+00 0.0000000000000000e+00)
# magUInf               : 2.3659999999999999e+02
# lRef                  : 1.0330000000000000e-01
# Aref                  : 6.7799999999999996e-03
# CofR                  : (3.5000000000000003e-02 0.0000000000000000e+00 0.0000000000000000e+00)
#
# Time                  	Cd                      	Cd(f)                   	Cd(r)                   	Cl                      	Cl(f)                   	Cl(r)                   	CmPitch                 	CmRoll                  	CmYaw                   	Cs                      	Cs(f)                   	Cs(r)                   
0                       	3.7731296367802675e-02	2.1328629996147756e-02	1.6402666371654918e-02	-4.3142771290236761e-06	-5.4755117650429725e-04	5.4323689937527369e-04	-5.4539403793978547e-04	2.4629818122464194e-03	-7.1349669420162735e-03	1.7413705571583216e-01	7.9933560915899801e-02	9.4203494799932355e-02
50                      	2.3578001537600375e-02	1.4372420658076566e-02	9.2055808795238094e-03	-3.5716569909634185e-04	-3.5085293645449898e-04	-6.3127626418428692e-06	-1.7227008690632803e-04	2.5834198892763791e-03	-1.2988322967132693e-02	1.7763075510650303e-01	7.5827054586118811e-02	1.0180370052038420e-01
100                     	2.1974310453247131e-02	1.3855216512991641e-02	8.1190939402554924e-03	-8.6588671043087543e-04	-6.6506532804019142e-04	-2.0082138239068393e-04	-2.3212197282475379e-04	2.8680612863680732e-03	-1.3571266724945113e-02	1.7772888735445944e-01	7.5293176952284602e-02	1.0243571040217483e-01
150                     	2.1013819128581954e-02	1.3219515711181337e-02	7.7943034174006165e-03	-7.6469461800036118e-04	-5.0671355812574766e-04	-2.5798105987461352e-04	-1.2436624912556707e-04	2.7126061468903608e-03	-1.4020224181529307e-02	1.7796336335486979e-01	7.4961457495905590e-02	1.0300190585896421e-01
200                     	2.0879455497579125e-02	1.2932738853984257e-02	7.9467166435948696e-03	1.8716357609748734e-05	-4.2209362223910146e-04	4.4080997984885018e-04	-4.3145180104397579e-04	2.4930111051946944e-03	-1.4178215096442449e-02	1.7802007203538536e-01	7.4831820921250222e-02	1.0318825111413513e-01
250                     	2.0815681051027230e-02	1.3120498168945708e-02	7.6951828820815233e-03	-5.8429903680281008e-04	-5.7844380611690044e-04	-5.8552306859096013e-06	-2.8629428771549545e-04	2.7126576434320922e-03	-1.4289985956125035e-02	1.7806724443969768e-01	7.4743636263723809e-02	1.0332360817597387e-01
300                     	2.0727368211792448e-02	1.3089451625436000e-02	7.6379165863564476e-03	-5.8590444645502220e-04	-5.8646393482735502e-04	5.5948837233280100e-07	-2.9351171159984387e-04	2.7257675195397754e-03	-1.4388806787770582e-02	1.7811815188580710e-01	7.4670269155132973e-02	1.0344788273067414e-01
350                     	2.0652392169139239e-02	1.3058691506370550e-02	7.5937006627686881e-03	-6.1794375125310099e-04	-5.9329384337374318e-04	-2.4649907879357820e-05	-2.8432196774719269e-04	2.7324954218009320e-03	-1.4460448446703987e-02	1.7816802547930072e-01	7.4623564292946379e-02	1.0354446118635434e-01
400                     	2.0630788839004641e-02	1.3054539663847098e-02	7.5762491751575449e-03	-6.2385729681566332e-04	-5.9468520553613278e-04	-2.9172091279530576e-05	-2.8275655712830107e-04	2.7391452443447759e-03	-1.4489019489651450e-02	1.7820508413606792e-01	7.4613522578382510e-02	1.0359156155768541e-01
450                     	2.0632841116896818e-02	1.3065285525081655e-02	7.5675555918151630e-03	-6.4140578016822576e-04	-5.9933339847527032e-04	-4.2072381692955481e-05	-2.7863050839115744e-04	2.7488649666332458e-03	-1.4497129531956560e-02	1.7822787290018260e-01	7.4616806918134743e-02	1.0361106598204786e-01
500                     	2.0632936855339054e-02	1.3060186528729608e-02	7.5727503266094466e-03	-6.2656549570930655e-04	-5.9442161349862390e-04	-3.2143882210682606e-05	-2.8113886564397068e-04	2.7437181010600805e-03	-1.4502576668881962e-02	1.7824289576696947e-01	7.4618871214602769e-02	1.0362402455236669e-01
550                     	2.0627269763266128e-02	1.3100461154541188e-02	7.5268086087249397e-03	-7.0523751212378885e-04	-6.1008028961875122e-04	-9.5157222505037612e-05	-2.5746153355685680e-04	2.7868262729081245e-03	-1.4508933264310256e-02	1.7825334901260992e-01	7.4617741241994703e-02	1.0363560777061522e-01
600                     	2.0620295769848897e-02	1.3232726328867451e-02	7.3875694409814441e-03	-9.7070735639644004e-04	-6.7192403830605924e-04	-2.9878331809038086e-04	-1.8657036010783916e-04	2.9225784439430033e-03	-1.4515766535158316e-02	1.7825875134717792e-01	7.4613609138430639e-02	1.0364514220874728e-01
650                     	2.0605759856264790e-02	1.3478755922851875e-02	7.1270039334129162e-03	-1.4771456504549584e-03	-7.9341188499483560e-04	-6.8373376546012287e-04	-5.4839059767356362e-05	3.1758759947194790e-03	-1.4526190237323468e-02	1.7826307137654243e-01	7.4605345450947741e-02	1.0365772592559469e-01
700                     	2.0601794978087579e-02	1.3677788692434108e-02	6.9240062856534695e-03	-1.9132072283072304e-03	-9.1374881120578184e-04	-9.9945841710144859e-04	4.2854802947833392e-05	3.3768912033903193e-03	-1.4530427601073710e-02	1.7826567101840843e-01	7.4602407908130497e-02	1.0366326311027792e-01
750                     	2.0611715667330038e-02	1.3431600071692027e-02	7.1801155956380093e-03	-1.4086509555790642e-03	-7.8547295807684741e-04	-6.2317799750221683e-04	-8.1147480287315236e-05	3.1257422380270095e-03	-1.4525724906982116e-02	1.7826653768266704e-01	7.4607543934351400e-02	1.0365899374831565e-01
800                     	2.0602858385150830e-02	1.3308487801626506e-02	7.2943705835243258e-03	-1.1753452767910588e-03	-7.2022599009486429e-04	-4.5511928669619449e-04	-1.3255335169933490e-04	3.0070586090510895e-03	-1.4530291768259922e-02	1.7827014298313670e-01	7.4604779723308437e-02	1.0366536325982828e-01
850                     	2.0582753589342966e-02	1.3206097174640351e-02	7.3766564147026165e-03	-9.9348415521689965e-04	-6.7707983407537997e-04	-3.1640432114151979e-04	-1.8033775646693009e-04	2.9147203799688667e-03	-1.4540120262055405e-02	1.7827616171178826e-01	7.4597960593838719e-02	1.0367820111794952e-01
900                     	2.0573271167559311e-02	1.3105388972209546e-02	7.4678821953497662e-03	-8.0574819993142310e-04	-6.3214178324587432e-04	-1.7360641668554884e-04	-2.2926768328016271e-04	2.8187533884298892e-03	-1.4544623635306321e-02	1.7827920770485028e-01	7.4594980217118828e-02	1.0368422748773146e-01
950                     	2.0570652525453922e-02	1.2994518972760521e-02	7.5761335526934002e-03	-5.9601084654714847e-04	-5.8473550682235575e-04	-1.1275339724792720e-05	-2.8673008354878151e-04	2.7091927100335611e-03	-1.4546174702937197e-02	1.7827900538528085e-01	7.4593327989703237e-02	1.0368567739557762e-01
1000                    	2.0570480416948308e-02	1.2791277308459017e-02	7.7792031084892906e-03	-1.9158781813642767e-04	-4.8959304155766592e-04	2.9800522342123827e-04	-3.9379913248945210e-04	2.5060370999848629e-03	-1.4547315469614516e-02	1.7827670431694476e-01	7.4591036688857859e-02	1.0368566762808688e-01
1050                    	2.0570022561869371e-02	1.2569782785816504e-02	8.0002397760528653e-03	2.7096522540213399e-04	-3.7109776484959124e-04	6.4206299025172534e-04	-5.0658037755065824e-04	2.2847715048818196e-03	-1.4548143226427401e-02	1.7827578057380578e-01	7.4589747060475484e-02	1.0368603351333029e-01
1100                    	2.0583575068932377e-02	1.2664590779131976e-02	7.9189842898004011e-03	1.0781958505075774e-04	-4.0935404066635875e-04	5.1717362571711647e-04	-4.6326383319173766e-04	2.3728032446657869e-03	-1.4540813068631317e-02	1.7827442456575215e-01	7.4596399214244768e-02	1.0367802535150739e-01
1150                    	2.0584555775520232e-02	1.2785298497799528e-02	7.7992572777207036e-03	-1.2729446801581641e-04	-4.7376461260041121e-04	3.4647014458459482e-04	-4.1011737859250299e-04	2.4930206100394121e-03	-1.4539294584882611e-02	1.7827677455572824e-01	7.4599092692981497e-02	1.0367768186274673e-01
1200                    	2.0575823309508634e-02	1.2870349791536496e-02	7.7054735179721383e-03	-3.0131778183032222e-04	-5.1696416583821910e-04	2.1564638400789693e-04	-3.6630527492305804e-04	2.5824381367821783e-03	-1.4543128887816968e-02	1.7828043720702400e-01	7.4597089715695036e-02	1.0368334749132897e-01
1250                    	2.0571857197092296e-02	1.2970630672616827e-02	7.6012265244754709e-03	-5.0191942072843481e-04	-5.6518942481345884e-04	6.3270004085023968e-05	-3.1422971444924138e-04	2.6847020740706786e-03	-1.4544796252290921e-02	1.7828164496782192e-01	7.4596026231620038e-02	1.0368561873620187e-01
1300                    	2.0575706840557244e-02	1.3110524446521041e-02	7.4651823940362046e-03	-7.7005371758319451e-04	-6.2762312047138754e-04	-1.4243059711180700e-04	-2.4259626167979028e-04	2.8226710262424176e-03	-1.4543538969162655e-02	1.7827866473614146e-01	7.4595793398908081e-02	1.0368287133723338e-01
1350                    	2.0570797086858848e-02	1.3365061552941813e-02	7.2057355339170352e-03	-1.2837328427069972e-03	-7.5004338493829645e-04	-5.3368945776870061e-04	-1.0817696358479789e-04	3.0796630095123894e-03	-1.4547133588238049e-02	1.7827723028623768e-01	7.4591481554880795e-02	1.0368574873135689e-01
1400                    	2.0568229566755351e-02	1.3534250834520990e-02	7.0339787322343597e-03	-1.6571092921465987e-03	-8.5411907734832043e-04	-8.0299021479827818e-04	-2.5564431275021122e-05	3.2501360511433151e-03	-1.4548898743393065e-02	1.7827780728644321e-01	7.4590004899828533e-02	1.0368780238661468e-01
1450                    	2.0579828642076720e-02	1.3394762943822970e-02	7.1850656982537491e-03	-1.3635923868831790e-03	-7.7319703946600478e-04	-5.9039534741717431e-04	-9.1400846024415264e-05	3.1048486227846102e-03	-1.4542368575478014e-02	1.7827626137049882e-01	7.4595762109771396e-02	1.0368049926072742e-01
1500                    	2.0580952419223929e-02	1.3332483149090142e-02	7.2484692701337864e-03	-1.2508734102722589e-03	-7.4417643751972979e-04	-5.0669697275252897e-04	-1.1873973238360036e-04	3.0420069394781783e-03	-1.4541515581024381e-02	1.7827645738065276e-01	7.4596713109301993e-02	1.0367974427135077e-01
1550                    	2.0568789157190851e-02	1.3187067952968770e-02	7.3817212042220810e-03	-9.7212567251021994e-04	-6.7475471728680966e-04	-2.9737095522341039e-04	-1.8869188103169961e-04	2.9026733743733441e-03	-1.4546886755607530e-02	1.7828106256138931e-01	7.4593644525087127e-02	1.0368741803630220e-01
1600                    	2.0563554395315257e-02	1.3089710391919496e-02	7.4738440033957614e-03	-7.8500694067322333e-04	-6.2688860664222097e-04	-1.5811833403100230e-04	-2.3438513630560931e-04	2.8079331942618677e-03	-1.4548517576478471e-02	1.7828411434752237e-01	7.4593539597282710e-02	1.0369057475023966e-01
1650                    	2.0564847756286940e-02	1.3014420161301082e-02	7.5504275949858576e-03	-6.4110550927607736e-04	-5.9585386046825364e-04	-4.5251648807823728e-05	-2.7530110583021497e-04	2.7319962831576128e-03	-1.4547312137900911e-02	1.7828389640972295e-01	7.4594636066960568e-02	1.0368926034276239e-01
1700                    	2.0569003782159204e-02	1.2854012451558022e-02	7.7149913306011810e-03	-3.2014312029952772e-04	-5.2153847118579524e-04	2.0139535088626757e-04	-3.6146691103603140e-04	2.5695105604784207e-03	-1.4545862239486200e-02	1.7828077258810676e-01	7.4594524054567179e-02	1.0368624853353957e-01
1750                    	2.0570418619465621e-02	1.2610387885077397e-02	7.9600307343882237e-03	1.7716764001707495e-04	-3.9981894915034092e-04	5.7698658916741584e-04	-4.8840276915887838e-04	2.3251785753445882e-03	-1.4546209269345061e-02	1.7827780296697573e-01	7.4592692214142817e-02	1.0368511075283293e-01
1800                    	2.0579491943380677e-02	1.2572942916095946e-02	8.0065490272847300e-03	2.8721800543352510e-04	-3.6323307659856584e-04	6.5045108203209100e-04	-5.0684207931532836e-04	2.2831969444056075e-03	-1.4541975228290366e-02	1.7827603017505689e-01	7.4596039859238072e-02	1.0367999031581882e-01
1850                    	2.0586673529121250e-02	1.2747240456486657e-02	7.8394330726345926e-03	-5.2770917606084010e-05	-4.5438710625474112e-04	4.0161618864865706e-04	-4.2800164745169909e-04	2.4539036919260316e-03	-1.4537630931550385e-02	1.7827696942980975e-01	7.4600853783354487e-02	1.0367611564645526e-01
1900                    	2.0578973153526303e-02	1.2833511723230152e-02	7.7454614302961532e-03	-2.2756089794035989e-04	-5.0058792891678749e-04	2.7302703097642760e-04	-3.8680747994660755e-04	2.5440251464669984e-03	-1.4541103429942888e-02	1.7828016531705132e-01	7.4598979228582774e-02	1.0368118608846855e-01
1950                    	2.0571307542879350e-02	1.2919880987011214e-02	7.6514265558681391e-03	-4.0374441413549412e-04	-5.4203516511702775e-04	1.3829075098153369e-04	-3.4016295804928072e-04	2.6342272155715366e-03	-1.4544763965875123e-02	1.7828212639158755e-01	7.4596299229918644e-02	1.0368582716166889e-01
2000                    	2.0572686724115129e-02	1.3045963463971324e-02	7.5267232601438057e-03	-6.4784123743836315e-04	-5.9962465488427202e-04	-4.8216582554091067e-05	-2.7570403616509050e-04	2.7596201019137591e-03	-1.4544788122330505e-02	1.7828009283097068e-01	7.4595258293154831e-02	1.0368483453781584e-01
2050                    	2.0570553808007781e-02	1.3254402188653844e-02	7.3161516193539361e-03	-1.0617359359199649e-03	-6.9696579928542823e-04	-3.6477013663453652e-04	-1.6609783132544591e-04	2.9691252846499546e-03	-1.4547043025534169e-02	1.7827774956733766e-01	7.4591831758134663e-02	1.0368591780920300e-01
2100                    	2.0564574912060516e-02	1.3508030113562868e-02	7.0565447984976479e-03	-1.5969821993476819e-03	-8.3397293915838538e-04	-7.6300926018929647e-04	-3.5481839484544482e-05	3.2257426575326093e-03	-1.4550809497457594e-02	1.7827840769687800e-01	7.4588394350981399e-02	1.0369001334589659e-01
2150                    	2.0572786641674154e-02	1.3421520516031255e-02	7.1512661256428987e-03	-1.4237978616644374e-03	-7.9218662960866778e-04	-6.3161123205576959e-04	-8.0287698776449124e-05	3.1351271951941787e-03	-1.4546156321842519e-02	1.7827755329137912e-01	7.4592620323847045e-02	1.0368493296753208e-01
2200                    	2.0580697023644522e-02	1.3367035419106877e-02	7.2136616045376445e-03	-1.3158436781584239e-03	-7.5957499447881196e-04	-5.5626868367961179e-04	-1.0165315539960005e-04	3.0766869072846163e-03	-1.4541740043285055e-02	1.7827625905164665e-01	7.4596389482538272e-02	1.0367986956910838e-01
2250                    	2.0572930561500734e-02	1.3242528764878249e-02	7.3304017966224853e-03	-1.0802987125314556e-03	-7.0298144779633353e-04	-3.7731726473512218e-04	-1.6283209153060565e-04	2.9560634841278824e-03	-1.4545023056079539e-02	1.7827929204531656e-01	7.4594622966578733e-02	1.0368466907873783e-01
2300                    	2.0564542502517356e-02	1.3113059652293414e-02	7.4514828502239422e-03	-8.2901819781126785e-04	-6.3778707710554451e-04	-1.9123112070572334e-04	-2.2327797819991058e-04	2.8307884010347365e-03	-1.4548252979355285e-02	1.7828349216612377e-01	7.4593493103706596e-02	1.0368999906241717e-01
2350                    	2.0563817512135686e-02	1.3044778049678216e-02	7.5190394624574716e-03	-6.9988241388529852e-04	-6.0837401264951573e-04	-9.1508401235782723e-05	-2.5843280570686652e-04	2.7628692936103728e-03	-1.4547673209520056e-02	1.7828462293281716e-01	7.4594638256888529e-02	1.0368998467592863e-01
2400                    	2.0568270522868786e-02	1.2924544725179577e-02	7.6437257976892103e-03	-4.6108379625117376e-04	-5.5477515453420919e-04	9.3691358283035423e-05	-3.2423325640862230e-04	2.6404094637451831e-03	-1.4545632512580616e-02	1.7828230828979805e-01	7.4595521632318404e-02	1.0368678665747964e-01
2450                    	2.0571439017935414e-02	1.2707597193802935e-02	7.8638418241324792e-03	-2.2546755678459570e-05	-4.4979810757275485e-04	4.2725135189429524e-04	-4.3852472973352505e-04	2.4218776848352274e-03	-1.4545014026294704e-02	1.7827865757962216e-01	7.4594314763516370e-02	1.0368434281610578e-01
2500                    	2.0574701239000792e-02	1.2527336611497205e-02	8.0473646275035868e-03	3.6755058543330401e-04	-3.4600676505476498e-04	7.1355735048806899e-04	-5.2978205777141701e-04	2.2399859919968088e-03	-1.4544293030241597e-02	1.7827684904831750e-01	7.4594131493917151e-02	1.0368271755440035e-01
